LAMMPS data file via write_data, version 29 Sep 2021, timestep = 0

64 atoms
1 atom types

0 10 xlo xhi
0 10 ylo yhi
0 10 zlo zhi

Masses

1 26.982

Atoms # atomic

1 1 0 0 0 0 0 0
2 1 3 0 0 0 0 0
3 1 6 0 0 0 0 0
4 1 9 0 0 0 0 0
5 1 0 3 0 0 0 0
6 1 3 3 0 0 0 0
7 1 6 3 0 0 0 0
8 1 9 3 0 0 0 0
9 1 0 6 0 0 0 0
10 1 3 6 0 0 0 0
11 1 6 6 0 0 0 0
12 1 9 6 0 0 0 0
13 1 0 9 0 0 0 0
14 1 3 9 0 0 0 0
15 1 6 9 0 0 0 0
16 1 9 9 0 0 0 0
17 1 0 0 3 0 0 0
18 1 3 0 3 0 0 0
19 1 6 0 3 0 0 0
20 1 9 0 3 0 0 0
21 1 0 3 3 0 0 0
22 1 3 3 3 0 0 0
23 1 6 3 3 0 0 0
24 1 9 3 3 0 0 0
25 1 0 6 3 0 0 0
26 1 3 6 3 0 0 0
27 1 6 6 3 0 0 0
28 1 9 6 3 0 0 0
29 1 0 9 3 0 0 0
30 1 3 9 3 0 0 0
31 1 6 9 3 0 0 0
32 1 9 9 3 0 0 0
33 1 0 0 6 0 0 0
34 1 3 0 6 0 0 0
35 1 6 0 6 0 0 0
36 1 9 0 6 0 0 0
37 1 0 3 6 0 0 0
38 1 3 3 6 0 0 0
39 1 6 3 6 0 0 0
40 1 9 3 6 0 0 0
41 1 0 6 6 0 0 0
42 1 3 6 6 0 0 0
43 1 6 6 6 0 0 0
44 1 9 6 6 0 0 0
45 1 0 9 6 0 0 0
46 1 3 9 6 0 0 0
47 1 6 9 6 0 0 0
48 1 9 9 6 0 0 0
49 1 0 0 9 0 0 0
50 1 3 0 9 0 0 0
51 1 6 0 9 0 0 0
52 1 9 0 9 0 0 0
53 1 0 3 9 0 0 0
54 1 3 3 9 0 0 0
55 1 6 3 9 0 0 0
56 1 9 3 9 0 0 0
57 1 0 6 9 0 0 0
58 1 3 6 9 0 0 0
59 1 6 6 9 0 0 0
60 1 9 6 9 0 0 0
61 1 0 9 9 0 0 0
62 1 3 9 9 0 0 0
63 1 6 9 9 0 0 0
64 1 9 9 9 0 0 0

Velocities

1 0 0 0
2 0 0 0
3 0 0 0
4 0 0 0
5 0 0 0
6 0 0 0
7 0 0 0
8 0 0 0
9 0 0 0
10 0 0 0
11 0 0 0
12 0 0 0
13 0 0 0
14 0 0 0
15 0 0 0
16 0 0 0
17 0 0 0
18 0 0 0
19 0 0 0
20 0 0 0
21 0 0 0
22 0 0 0
23 0 0 0
24 0 0 0
25 0 0 0
26 0 0 0
27 0 0 0
28 0 0 0
29 0 0 0
30 0 0 0
31 0 0 0
32 0 0 0
33 0 0 0
34 0 0 0
35 0 0 0
36 0 0 0
37 0 0 0
38 0 0 0
39 0 0 0
40 0 0 0
41 0 0 0
42 0 0 0
43 0 0 0
44 0 0 0
45 0 0 0
46 0 0 0
47 0 0 0
48 0 0 0
49 0 0 0
50 0 0 0
51 0 0 0
52 0 0 0
53 0 0 0
54 0 0 0
55 0 0 0
56 0 0 0
57 0 0 0
58 0 0 0
59 0 0 0
60 0 0 0
61 0 0 0
62 0 0 0
63 0 0 0
64 0 0 0
