LAMMPS data file via MDsim, time step 0

864 atoms
1 atom types

0 32.31 xlo xhi
0 32.31 ylo yhi
0 32.31 zlo zhi


Masses

1 1

Atoms

1 1 0 0 0
2 1 0 2.6925 2.6925
3 1 2.6925 0 2.6925
4 1 2.6925 2.6925 0
5 1 0 0 5.385
6 1 0 2.6925 8.0775
7 1 2.6925 0 8.0775
8 1 2.6925 2.6925 5.385
9 1 0 0 10.77
10 1 0 2.6925 13.4625
11 1 2.6925 0 13.4625
12 1 2.6925 2.6925 10.77
13 1 0 0 16.155
14 1 0 2.6925 18.8475
15 1 2.6925 0 18.8475
16 1 2.6925 2.6925 16.155
17 1 0 0 21.54
18 1 0 2.6925 24.2325
19 1 2.6925 0 24.2325
20 1 2.6925 2.6925 21.54
21 1 0 0 26.925
22 1 0 2.6925 29.6175
23 1 2.6925 0 29.6175
24 1 2.6925 2.6925 26.925
25 1 0 5.385 0
26 1 0 8.0775 2.6925
27 1 2.6925 5.385 2.6925
28 1 2.6925 8.0775 0
29 1 0 5.385 5.385
30 1 0 8.0775 8.0775
31 1 2.6925 5.385 8.0775
32 1 2.6925 8.0775 5.385
33 1 0 5.385 10.77
34 1 0 8.0775 13.4625
35 1 2.6925 5.385 13.4625
36 1 2.6925 8.0775 10.77
37 1 0 5.385 16.155
38 1 0 8.0775 18.8475
39 1 2.6925 5.385 18.8475
40 1 2.6925 8.0775 16.155
41 1 0 5.385 21.54
42 1 0 8.0775 24.2325
43 1 2.6925 5.385 24.2325
44 1 2.6925 8.0775 21.54
45 1 0 5.385 26.925
46 1 0 8.0775 29.6175
47 1 2.6925 5.385 29.6175
48 1 2.6925 8.0775 26.925
49 1 0 10.77 0
50 1 0 13.4625 2.6925
51 1 2.6925 10.77 2.6925
52 1 2.6925 13.4625 0
53 1 0 10.77 5.385
54 1 0 13.4625 8.0775
55 1 2.6925 10.77 8.0775
56 1 2.6925 13.4625 5.385
57 1 0 10.77 10.77
58 1 0 13.4625 13.4625
59 1 2.6925 10.77 13.4625
60 1 2.6925 13.4625 10.77
61 1 0 10.77 16.155
62 1 0 13.4625 18.8475
63 1 2.6925 10.77 18.8475
64 1 2.6925 13.4625 16.155
65 1 0 10.77 21.54
66 1 0 13.4625 24.2325
67 1 2.6925 10.77 24.2325
68 1 2.6925 13.4625 21.54
69 1 0 10.77 26.925
70 1 0 13.4625 29.6175
71 1 2.6925 10.77 29.6175
72 1 2.6925 13.4625 26.925
73 1 0 16.155 0
74 1 0 18.8475 2.6925
75 1 2.6925 16.155 2.6925
76 1 2.6925 18.8475 0
77 1 0 16.155 5.385
78 1 0 18.8475 8.0775
79 1 2.6925 16.155 8.0775
80 1 2.6925 18.8475 5.385
81 1 0 16.155 10.77
82 1 0 18.8475 13.4625
83 1 2.6925 16.155 13.4625
84 1 2.6925 18.8475 10.77
85 1 0 16.155 16.155
86 1 0 18.8475 18.8475
87 1 2.6925 16.155 18.8475
88 1 2.6925 18.8475 16.155
89 1 0 16.155 21.54
90 1 0 18.8475 24.2325
91 1 2.6925 16.155 24.2325
92 1 2.6925 18.8475 21.54
93 1 0 16.155 26.925
94 1 0 18.8475 29.6175
95 1 2.6925 16.155 29.6175
96 1 2.6925 18.8475 26.925
97 1 0 21.54 0
98 1 0 24.2325 2.6925
99 1 2.6925 21.54 2.6925
100 1 2.6925 24.2325 0
101 1 0 21.54 5.385
102 1 0 24.2325 8.0775
103 1 2.6925 21.54 8.0775
104 1 2.6925 24.2325 5.385
105 1 0 21.54 10.77
106 1 0 24.2325 13.4625
107 1 2.6925 21.54 13.4625
108 1 2.6925 24.2325 10.77
109 1 0 21.54 16.155
110 1 0 24.2325 18.8475
111 1 2.6925 21.54 18.8475
112 1 2.6925 24.2325 16.155
113 1 0 21.54 21.54
114 1 0 24.2325 24.2325
115 1 2.6925 21.54 24.2325
116 1 2.6925 24.2325 21.54
117 1 0 21.54 26.925
118 1 0 24.2325 29.6175
119 1 2.6925 21.54 29.6175
120 1 2.6925 24.2325 26.925
121 1 0 26.925 0
122 1 0 29.6175 2.6925
123 1 2.6925 26.925 2.6925
124 1 2.6925 29.6175 0
125 1 0 26.925 5.385
126 1 0 29.6175 8.0775
127 1 2.6925 26.925 8.0775
128 1 2.6925 29.6175 5.385
129 1 0 26.925 10.77
130 1 0 29.6175 13.4625
131 1 2.6925 26.925 13.4625
132 1 2.6925 29.6175 10.77
133 1 0 26.925 16.155
134 1 0 29.6175 18.8475
135 1 2.6925 26.925 18.8475
136 1 2.6925 29.6175 16.155
137 1 0 26.925 21.54
138 1 0 29.6175 24.2325
139 1 2.6925 26.925 24.2325
140 1 2.6925 29.6175 21.54
141 1 0 26.925 26.925
142 1 0 29.6175 29.6175
143 1 2.6925 26.925 29.6175
144 1 2.6925 29.6175 26.925
145 1 5.385 0 0
146 1 5.385 2.6925 2.6925
147 1 8.0775 0 2.6925
148 1 8.0775 2.6925 0
149 1 5.385 0 5.385
150 1 5.385 2.6925 8.0775
151 1 8.0775 0 8.0775
152 1 8.0775 2.6925 5.385
153 1 5.385 0 10.77
154 1 5.385 2.6925 13.4625
155 1 8.0775 0 13.4625
156 1 8.0775 2.6925 10.77
157 1 5.385 0 16.155
158 1 5.385 2.6925 18.8475
159 1 8.0775 0 18.8475
160 1 8.0775 2.6925 16.155
161 1 5.385 0 21.54
162 1 5.385 2.6925 24.2325
163 1 8.0775 0 24.2325
164 1 8.0775 2.6925 21.54
165 1 5.385 0 26.925
166 1 5.385 2.6925 29.6175
167 1 8.0775 0 29.6175
168 1 8.0775 2.6925 26.925
169 1 5.385 5.385 0
170 1 5.385 8.0775 2.6925
171 1 8.0775 5.385 2.6925
172 1 8.0775 8.0775 0
173 1 5.385 5.385 5.385
174 1 5.385 8.0775 8.0775
175 1 8.0775 5.385 8.0775
176 1 8.0775 8.0775 5.385
177 1 5.385 5.385 10.77
178 1 5.385 8.0775 13.4625
179 1 8.0775 5.385 13.4625
180 1 8.0775 8.0775 10.77
181 1 5.385 5.385 16.155
182 1 5.385 8.0775 18.8475
183 1 8.0775 5.385 18.8475
184 1 8.0775 8.0775 16.155
185 1 5.385 5.385 21.54
186 1 5.385 8.0775 24.2325
187 1 8.0775 5.385 24.2325
188 1 8.0775 8.0775 21.54
189 1 5.385 5.385 26.925
190 1 5.385 8.0775 29.6175
191 1 8.0775 5.385 29.6175
192 1 8.0775 8.0775 26.925
193 1 5.385 10.77 0
194 1 5.385 13.4625 2.6925
195 1 8.0775 10.77 2.6925
196 1 8.0775 13.4625 0
197 1 5.385 10.77 5.385
198 1 5.385 13.4625 8.0775
199 1 8.0775 10.77 8.0775
200 1 8.0775 13.4625 5.385
201 1 5.385 10.77 10.77
202 1 5.385 13.4625 13.4625
203 1 8.0775 10.77 13.4625
204 1 8.0775 13.4625 10.77
205 1 5.385 10.77 16.155
206 1 5.385 13.4625 18.8475
207 1 8.0775 10.77 18.8475
208 1 8.0775 13.4625 16.155
209 1 5.385 10.77 21.54
210 1 5.385 13.4625 24.2325
211 1 8.0775 10.77 24.2325
212 1 8.0775 13.4625 21.54
213 1 5.385 10.77 26.925
214 1 5.385 13.4625 29.6175
215 1 8.0775 10.77 29.6175
216 1 8.0775 13.4625 26.925
217 1 5.385 16.155 0
218 1 5.385 18.8475 2.6925
219 1 8.0775 16.155 2.6925
220 1 8.0775 18.8475 0
221 1 5.385 16.155 5.385
222 1 5.385 18.8475 8.0775
223 1 8.0775 16.155 8.0775
224 1 8.0775 18.8475 5.385
225 1 5.385 16.155 10.77
226 1 5.385 18.8475 13.4625
227 1 8.0775 16.155 13.4625
228 1 8.0775 18.8475 10.77
229 1 5.385 16.155 16.155
230 1 5.385 18.8475 18.8475
231 1 8.0775 16.155 18.8475
232 1 8.0775 18.8475 16.155
233 1 5.385 16.155 21.54
234 1 5.385 18.8475 24.2325
235 1 8.0775 16.155 24.2325
236 1 8.0775 18.8475 21.54
237 1 5.385 16.155 26.925
238 1 5.385 18.8475 29.6175
239 1 8.0775 16.155 29.6175
240 1 8.0775 18.8475 26.925
241 1 5.385 21.54 0
242 1 5.385 24.2325 2.6925
243 1 8.0775 21.54 2.6925
244 1 8.0775 24.2325 0
245 1 5.385 21.54 5.385
246 1 5.385 24.2325 8.0775
247 1 8.0775 21.54 8.0775
248 1 8.0775 24.2325 5.385
249 1 5.385 21.54 10.77
250 1 5.385 24.2325 13.4625
251 1 8.0775 21.54 13.4625
252 1 8.0775 24.2325 10.77
253 1 5.385 21.54 16.155
254 1 5.385 24.2325 18.8475
255 1 8.0775 21.54 18.8475
256 1 8.0775 24.2325 16.155
257 1 5.385 21.54 21.54
258 1 5.385 24.2325 24.2325
259 1 8.0775 21.54 24.2325
260 1 8.0775 24.2325 21.54
261 1 5.385 21.54 26.925
262 1 5.385 24.2325 29.6175
263 1 8.0775 21.54 29.6175
264 1 8.0775 24.2325 26.925
265 1 5.385 26.925 0
266 1 5.385 29.6175 2.6925
267 1 8.0775 26.925 2.6925
268 1 8.0775 29.6175 0
269 1 5.385 26.925 5.385
270 1 5.385 29.6175 8.0775
271 1 8.0775 26.925 8.0775
272 1 8.0775 29.6175 5.385
273 1 5.385 26.925 10.77
274 1 5.385 29.6175 13.4625
275 1 8.0775 26.925 13.4625
276 1 8.0775 29.6175 10.77
277 1 5.385 26.925 16.155
278 1 5.385 29.6175 18.8475
279 1 8.0775 26.925 18.8475
280 1 8.0775 29.6175 16.155
281 1 5.385 26.925 21.54
282 1 5.385 29.6175 24.2325
283 1 8.0775 26.925 24.2325
284 1 8.0775 29.6175 21.54
285 1 5.385 26.925 26.925
286 1 5.385 29.6175 29.6175
287 1 8.0775 26.925 29.6175
288 1 8.0775 29.6175 26.925
289 1 10.77 0 0
290 1 10.77 2.6925 2.6925
291 1 13.4625 0 2.6925
292 1 13.4625 2.6925 0
293 1 10.77 0 5.385
294 1 10.77 2.6925 8.0775
295 1 13.4625 0 8.0775
296 1 13.4625 2.6925 5.385
297 1 10.77 0 10.77
298 1 10.77 2.6925 13.4625
299 1 13.4625 0 13.4625
300 1 13.4625 2.6925 10.77
301 1 10.77 0 16.155
302 1 10.77 2.6925 18.8475
303 1 13.4625 0 18.8475
304 1 13.4625 2.6925 16.155
305 1 10.77 0 21.54
306 1 10.77 2.6925 24.2325
307 1 13.4625 0 24.2325
308 1 13.4625 2.6925 21.54
309 1 10.77 0 26.925
310 1 10.77 2.6925 29.6175
311 1 13.4625 0 29.6175
312 1 13.4625 2.6925 26.925
313 1 10.77 5.385 0
314 1 10.77 8.0775 2.6925
315 1 13.4625 5.385 2.6925
316 1 13.4625 8.0775 0
317 1 10.77 5.385 5.385
318 1 10.77 8.0775 8.0775
319 1 13.4625 5.385 8.0775
320 1 13.4625 8.0775 5.385
321 1 10.77 5.385 10.77
322 1 10.77 8.0775 13.4625
323 1 13.4625 5.385 13.4625
324 1 13.4625 8.0775 10.77
325 1 10.77 5.385 16.155
326 1 10.77 8.0775 18.8475
327 1 13.4625 5.385 18.8475
328 1 13.4625 8.0775 16.155
329 1 10.77 5.385 21.54
330 1 10.77 8.0775 24.2325
331 1 13.4625 5.385 24.2325
332 1 13.4625 8.0775 21.54
333 1 10.77 5.385 26.925
334 1 10.77 8.0775 29.6175
335 1 13.4625 5.385 29.6175
336 1 13.4625 8.0775 26.925
337 1 10.77 10.77 0
338 1 10.77 13.4625 2.6925
339 1 13.4625 10.77 2.6925
340 1 13.4625 13.4625 0
341 1 10.77 10.77 5.385
342 1 10.77 13.4625 8.0775
343 1 13.4625 10.77 8.0775
344 1 13.4625 13.4625 5.385
345 1 10.77 10.77 10.77
346 1 10.77 13.4625 13.4625
347 1 13.4625 10.77 13.4625
348 1 13.4625 13.4625 10.77
349 1 10.77 10.77 16.155
350 1 10.77 13.4625 18.8475
351 1 13.4625 10.77 18.8475
352 1 13.4625 13.4625 16.155
353 1 10.77 10.77 21.54
354 1 10.77 13.4625 24.2325
355 1 13.4625 10.77 24.2325
356 1 13.4625 13.4625 21.54
357 1 10.77 10.77 26.925
358 1 10.77 13.4625 29.6175
359 1 13.4625 10.77 29.6175
360 1 13.4625 13.4625 26.925
361 1 10.77 16.155 0
362 1 10.77 18.8475 2.6925
363 1 13.4625 16.155 2.6925
364 1 13.4625 18.8475 0
365 1 10.77 16.155 5.385
366 1 10.77 18.8475 8.0775
367 1 13.4625 16.155 8.0775
368 1 13.4625 18.8475 5.385
369 1 10.77 16.155 10.77
370 1 10.77 18.8475 13.4625
371 1 13.4625 16.155 13.4625
372 1 13.4625 18.8475 10.77
373 1 10.77 16.155 16.155
374 1 10.77 18.8475 18.8475
375 1 13.4625 16.155 18.8475
376 1 13.4625 18.8475 16.155
377 1 10.77 16.155 21.54
378 1 10.77 18.8475 24.2325
379 1 13.4625 16.155 24.2325
380 1 13.4625 18.8475 21.54
381 1 10.77 16.155 26.925
382 1 10.77 18.8475 29.6175
383 1 13.4625 16.155 29.6175
384 1 13.4625 18.8475 26.925
385 1 10.77 21.54 0
386 1 10.77 24.2325 2.6925
387 1 13.4625 21.54 2.6925
388 1 13.4625 24.2325 0
389 1 10.77 21.54 5.385
390 1 10.77 24.2325 8.0775
391 1 13.4625 21.54 8.0775
392 1 13.4625 24.2325 5.385
393 1 10.77 21.54 10.77
394 1 10.77 24.2325 13.4625
395 1 13.4625 21.54 13.4625
396 1 13.4625 24.2325 10.77
397 1 10.77 21.54 16.155
398 1 10.77 24.2325 18.8475
399 1 13.4625 21.54 18.8475
400 1 13.4625 24.2325 16.155
401 1 10.77 21.54 21.54
402 1 10.77 24.2325 24.2325
403 1 13.4625 21.54 24.2325
404 1 13.4625 24.2325 21.54
405 1 10.77 21.54 26.925
406 1 10.77 24.2325 29.6175
407 1 13.4625 21.54 29.6175
408 1 13.4625 24.2325 26.925
409 1 10.77 26.925 0
410 1 10.77 29.6175 2.6925
411 1 13.4625 26.925 2.6925
412 1 13.4625 29.6175 0
413 1 10.77 26.925 5.385
414 1 10.77 29.6175 8.0775
415 1 13.4625 26.925 8.0775
416 1 13.4625 29.6175 5.385
417 1 10.77 26.925 10.77
418 1 10.77 29.6175 13.4625
419 1 13.4625 26.925 13.4625
420 1 13.4625 29.6175 10.77
421 1 10.77 26.925 16.155
422 1 10.77 29.6175 18.8475
423 1 13.4625 26.925 18.8475
424 1 13.4625 29.6175 16.155
425 1 10.77 26.925 21.54
426 1 10.77 29.6175 24.2325
427 1 13.4625 26.925 24.2325
428 1 13.4625 29.6175 21.54
429 1 10.77 26.925 26.925
430 1 10.77 29.6175 29.6175
431 1 13.4625 26.925 29.6175
432 1 13.4625 29.6175 26.925
433 1 16.155 0 0
434 1 16.155 2.6925 2.6925
435 1 18.8475 0 2.6925
436 1 18.8475 2.6925 0
437 1 16.155 0 5.385
438 1 16.155 2.6925 8.0775
439 1 18.8475 0 8.0775
440 1 18.8475 2.6925 5.385
441 1 16.155 0 10.77
442 1 16.155 2.6925 13.4625
443 1 18.8475 0 13.4625
444 1 18.8475 2.6925 10.77
445 1 16.155 0 16.155
446 1 16.155 2.6925 18.8475
447 1 18.8475 0 18.8475
448 1 18.8475 2.6925 16.155
449 1 16.155 0 21.54
450 1 16.155 2.6925 24.2325
451 1 18.8475 0 24.2325
452 1 18.8475 2.6925 21.54
453 1 16.155 0 26.925
454 1 16.155 2.6925 29.6175
455 1 18.8475 0 29.6175
456 1 18.8475 2.6925 26.925
457 1 16.155 5.385 0
458 1 16.155 8.0775 2.6925
459 1 18.8475 5.385 2.6925
460 1 18.8475 8.0775 0
461 1 16.155 5.385 5.385
462 1 16.155 8.0775 8.0775
463 1 18.8475 5.385 8.0775
464 1 18.8475 8.0775 5.385
465 1 16.155 5.385 10.77
466 1 16.155 8.0775 13.4625
467 1 18.8475 5.385 13.4625
468 1 18.8475 8.0775 10.77
469 1 16.155 5.385 16.155
470 1 16.155 8.0775 18.8475
471 1 18.8475 5.385 18.8475
472 1 18.8475 8.0775 16.155
473 1 16.155 5.385 21.54
474 1 16.155 8.0775 24.2325
475 1 18.8475 5.385 24.2325
476 1 18.8475 8.0775 21.54
477 1 16.155 5.385 26.925
478 1 16.155 8.0775 29.6175
479 1 18.8475 5.385 29.6175
480 1 18.8475 8.0775 26.925
481 1 16.155 10.77 0
482 1 16.155 13.4625 2.6925
483 1 18.8475 10.77 2.6925
484 1 18.8475 13.4625 0
485 1 16.155 10.77 5.385
486 1 16.155 13.4625 8.0775
487 1 18.8475 10.77 8.0775
488 1 18.8475 13.4625 5.385
489 1 16.155 10.77 10.77
490 1 16.155 13.4625 13.4625
491 1 18.8475 10.77 13.4625
492 1 18.8475 13.4625 10.77
493 1 16.155 10.77 16.155
494 1 16.155 13.4625 18.8475
495 1 18.8475 10.77 18.8475
496 1 18.8475 13.4625 16.155
497 1 16.155 10.77 21.54
498 1 16.155 13.4625 24.2325
499 1 18.8475 10.77 24.2325
500 1 18.8475 13.4625 21.54
501 1 16.155 10.77 26.925
502 1 16.155 13.4625 29.6175
503 1 18.8475 10.77 29.6175
504 1 18.8475 13.4625 26.925
505 1 16.155 16.155 0
506 1 16.155 18.8475 2.6925
507 1 18.8475 16.155 2.6925
508 1 18.8475 18.8475 0
509 1 16.155 16.155 5.385
510 1 16.155 18.8475 8.0775
511 1 18.8475 16.155 8.0775
512 1 18.8475 18.8475 5.385
513 1 16.155 16.155 10.77
514 1 16.155 18.8475 13.4625
515 1 18.8475 16.155 13.4625
516 1 18.8475 18.8475 10.77
517 1 16.155 16.155 16.155
518 1 16.155 18.8475 18.8475
519 1 18.8475 16.155 18.8475
520 1 18.8475 18.8475 16.155
521 1 16.155 16.155 21.54
522 1 16.155 18.8475 24.2325
523 1 18.8475 16.155 24.2325
524 1 18.8475 18.8475 21.54
525 1 16.155 16.155 26.925
526 1 16.155 18.8475 29.6175
527 1 18.8475 16.155 29.6175
528 1 18.8475 18.8475 26.925
529 1 16.155 21.54 0
530 1 16.155 24.2325 2.6925
531 1 18.8475 21.54 2.6925
532 1 18.8475 24.2325 0
533 1 16.155 21.54 5.385
534 1 16.155 24.2325 8.0775
535 1 18.8475 21.54 8.0775
536 1 18.8475 24.2325 5.385
537 1 16.155 21.54 10.77
538 1 16.155 24.2325 13.4625
539 1 18.8475 21.54 13.4625
540 1 18.8475 24.2325 10.77
541 1 16.155 21.54 16.155
542 1 16.155 24.2325 18.8475
543 1 18.8475 21.54 18.8475
544 1 18.8475 24.2325 16.155
545 1 16.155 21.54 21.54
546 1 16.155 24.2325 24.2325
547 1 18.8475 21.54 24.2325
548 1 18.8475 24.2325 21.54
549 1 16.155 21.54 26.925
550 1 16.155 24.2325 29.6175
551 1 18.8475 21.54 29.6175
552 1 18.8475 24.2325 26.925
553 1 16.155 26.925 0
554 1 16.155 29.6175 2.6925
555 1 18.8475 26.925 2.6925
556 1 18.8475 29.6175 0
557 1 16.155 26.925 5.385
558 1 16.155 29.6175 8.0775
559 1 18.8475 26.925 8.0775
560 1 18.8475 29.6175 5.385
561 1 16.155 26.925 10.77
562 1 16.155 29.6175 13.4625
563 1 18.8475 26.925 13.4625
564 1 18.8475 29.6175 10.77
565 1 16.155 26.925 16.155
566 1 16.155 29.6175 18.8475
567 1 18.8475 26.925 18.8475
568 1 18.8475 29.6175 16.155
569 1 16.155 26.925 21.54
570 1 16.155 29.6175 24.2325
571 1 18.8475 26.925 24.2325
572 1 18.8475 29.6175 21.54
573 1 16.155 26.925 26.925
574 1 16.155 29.6175 29.6175
575 1 18.8475 26.925 29.6175
576 1 18.8475 29.6175 26.925
577 1 21.54 0 0
578 1 21.54 2.6925 2.6925
579 1 24.2325 0 2.6925
580 1 24.2325 2.6925 0
581 1 21.54 0 5.385
582 1 21.54 2.6925 8.0775
583 1 24.2325 0 8.0775
584 1 24.2325 2.6925 5.385
585 1 21.54 0 10.77
586 1 21.54 2.6925 13.4625
587 1 24.2325 0 13.4625
588 1 24.2325 2.6925 10.77
589 1 21.54 0 16.155
590 1 21.54 2.6925 18.8475
591 1 24.2325 0 18.8475
592 1 24.2325 2.6925 16.155
593 1 21.54 0 21.54
594 1 21.54 2.6925 24.2325
595 1 24.2325 0 24.2325
596 1 24.2325 2.6925 21.54
597 1 21.54 0 26.925
598 1 21.54 2.6925 29.6175
599 1 24.2325 0 29.6175
600 1 24.2325 2.6925 26.925
601 1 21.54 5.385 0
602 1 21.54 8.0775 2.6925
603 1 24.2325 5.385 2.6925
604 1 24.2325 8.0775 0
605 1 21.54 5.385 5.385
606 1 21.54 8.0775 8.0775
607 1 24.2325 5.385 8.0775
608 1 24.2325 8.0775 5.385
609 1 21.54 5.385 10.77
610 1 21.54 8.0775 13.4625
611 1 24.2325 5.385 13.4625
612 1 24.2325 8.0775 10.77
613 1 21.54 5.385 16.155
614 1 21.54 8.0775 18.8475
615 1 24.2325 5.385 18.8475
616 1 24.2325 8.0775 16.155
617 1 21.54 5.385 21.54
618 1 21.54 8.0775 24.2325
619 1 24.2325 5.385 24.2325
620 1 24.2325 8.0775 21.54
621 1 21.54 5.385 26.925
622 1 21.54 8.0775 29.6175
623 1 24.2325 5.385 29.6175
624 1 24.2325 8.0775 26.925
625 1 21.54 10.77 0
626 1 21.54 13.4625 2.6925
627 1 24.2325 10.77 2.6925
628 1 24.2325 13.4625 0
629 1 21.54 10.77 5.385
630 1 21.54 13.4625 8.0775
631 1 24.2325 10.77 8.0775
632 1 24.2325 13.4625 5.385
633 1 21.54 10.77 10.77
634 1 21.54 13.4625 13.4625
635 1 24.2325 10.77 13.4625
636 1 24.2325 13.4625 10.77
637 1 21.54 10.77 16.155
638 1 21.54 13.4625 18.8475
639 1 24.2325 10.77 18.8475
640 1 24.2325 13.4625 16.155
641 1 21.54 10.77 21.54
642 1 21.54 13.4625 24.2325
643 1 24.2325 10.77 24.2325
644 1 24.2325 13.4625 21.54
645 1 21.54 10.77 26.925
646 1 21.54 13.4625 29.6175
647 1 24.2325 10.77 29.6175
648 1 24.2325 13.4625 26.925
649 1 21.54 16.155 0
650 1 21.54 18.8475 2.6925
651 1 24.2325 16.155 2.6925
652 1 24.2325 18.8475 0
653 1 21.54 16.155 5.385
654 1 21.54 18.8475 8.0775
655 1 24.2325 16.155 8.0775
656 1 24.2325 18.8475 5.385
657 1 21.54 16.155 10.77
658 1 21.54 18.8475 13.4625
659 1 24.2325 16.155 13.4625
660 1 24.2325 18.8475 10.77
661 1 21.54 16.155 16.155
662 1 21.54 18.8475 18.8475
663 1 24.2325 16.155 18.8475
664 1 24.2325 18.8475 16.155
665 1 21.54 16.155 21.54
666 1 21.54 18.8475 24.2325
667 1 24.2325 16.155 24.2325
668 1 24.2325 18.8475 21.54
669 1 21.54 16.155 26.925
670 1 21.54 18.8475 29.6175
671 1 24.2325 16.155 29.6175
672 1 24.2325 18.8475 26.925
673 1 21.54 21.54 0
674 1 21.54 24.2325 2.6925
675 1 24.2325 21.54 2.6925
676 1 24.2325 24.2325 0
677 1 21.54 21.54 5.385
678 1 21.54 24.2325 8.0775
679 1 24.2325 21.54 8.0775
680 1 24.2325 24.2325 5.385
681 1 21.54 21.54 10.77
682 1 21.54 24.2325 13.4625
683 1 24.2325 21.54 13.4625
684 1 24.2325 24.2325 10.77
685 1 21.54 21.54 16.155
686 1 21.54 24.2325 18.8475
687 1 24.2325 21.54 18.8475
688 1 24.2325 24.2325 16.155
689 1 21.54 21.54 21.54
690 1 21.54 24.2325 24.2325
691 1 24.2325 21.54 24.2325
692 1 24.2325 24.2325 21.54
693 1 21.54 21.54 26.925
694 1 21.54 24.2325 29.6175
695 1 24.2325 21.54 29.6175
696 1 24.2325 24.2325 26.925
697 1 21.54 26.925 0
698 1 21.54 29.6175 2.6925
699 1 24.2325 26.925 2.6925
700 1 24.2325 29.6175 0
701 1 21.54 26.925 5.385
702 1 21.54 29.6175 8.0775
703 1 24.2325 26.925 8.0775
704 1 24.2325 29.6175 5.385
705 1 21.54 26.925 10.77
706 1 21.54 29.6175 13.4625
707 1 24.2325 26.925 13.4625
708 1 24.2325 29.6175 10.77
709 1 21.54 26.925 16.155
710 1 21.54 29.6175 18.8475
711 1 24.2325 26.925 18.8475
712 1 24.2325 29.6175 16.155
713 1 21.54 26.925 21.54
714 1 21.54 29.6175 24.2325
715 1 24.2325 26.925 24.2325
716 1 24.2325 29.6175 21.54
717 1 21.54 26.925 26.925
718 1 21.54 29.6175 29.6175
719 1 24.2325 26.925 29.6175
720 1 24.2325 29.6175 26.925
721 1 26.925 0 0
722 1 26.925 2.6925 2.6925
723 1 29.6175 0 2.6925
724 1 29.6175 2.6925 0
725 1 26.925 0 5.385
726 1 26.925 2.6925 8.0775
727 1 29.6175 0 8.0775
728 1 29.6175 2.6925 5.385
729 1 26.925 0 10.77
730 1 26.925 2.6925 13.4625
731 1 29.6175 0 13.4625
732 1 29.6175 2.6925 10.77
733 1 26.925 0 16.155
734 1 26.925 2.6925 18.8475
735 1 29.6175 0 18.8475
736 1 29.6175 2.6925 16.155
737 1 26.925 0 21.54
738 1 26.925 2.6925 24.2325
739 1 29.6175 0 24.2325
740 1 29.6175 2.6925 21.54
741 1 26.925 0 26.925
742 1 26.925 2.6925 29.6175
743 1 29.6175 0 29.6175
744 1 29.6175 2.6925 26.925
745 1 26.925 5.385 0
746 1 26.925 8.0775 2.6925
747 1 29.6175 5.385 2.6925
748 1 29.6175 8.0775 0
749 1 26.925 5.385 5.385
750 1 26.925 8.0775 8.0775
751 1 29.6175 5.385 8.0775
752 1 29.6175 8.0775 5.385
753 1 26.925 5.385 10.77
754 1 26.925 8.0775 13.4625
755 1 29.6175 5.385 13.4625
756 1 29.6175 8.0775 10.77
757 1 26.925 5.385 16.155
758 1 26.925 8.0775 18.8475
759 1 29.6175 5.385 18.8475
760 1 29.6175 8.0775 16.155
761 1 26.925 5.385 21.54
762 1 26.925 8.0775 24.2325
763 1 29.6175 5.385 24.2325
764 1 29.6175 8.0775 21.54
765 1 26.925 5.385 26.925
766 1 26.925 8.0775 29.6175
767 1 29.6175 5.385 29.6175
768 1 29.6175 8.0775 26.925
769 1 26.925 10.77 0
770 1 26.925 13.4625 2.6925
771 1 29.6175 10.77 2.6925
772 1 29.6175 13.4625 0
773 1 26.925 10.77 5.385
774 1 26.925 13.4625 8.0775
775 1 29.6175 10.77 8.0775
776 1 29.6175 13.4625 5.385
777 1 26.925 10.77 10.77
778 1 26.925 13.4625 13.4625
779 1 29.6175 10.77 13.4625
780 1 29.6175 13.4625 10.77
781 1 26.925 10.77 16.155
782 1 26.925 13.4625 18.8475
783 1 29.6175 10.77 18.8475
784 1 29.6175 13.4625 16.155
785 1 26.925 10.77 21.54
786 1 26.925 13.4625 24.2325
787 1 29.6175 10.77 24.2325
788 1 29.6175 13.4625 21.54
789 1 26.925 10.77 26.925
790 1 26.925 13.4625 29.6175
791 1 29.6175 10.77 29.6175
792 1 29.6175 13.4625 26.925
793 1 26.925 16.155 0
794 1 26.925 18.8475 2.6925
795 1 29.6175 16.155 2.6925
796 1 29.6175 18.8475 0
797 1 26.925 16.155 5.385
798 1 26.925 18.8475 8.0775
799 1 29.6175 16.155 8.0775
800 1 29.6175 18.8475 5.385
801 1 26.925 16.155 10.77
802 1 26.925 18.8475 13.4625
803 1 29.6175 16.155 13.4625
804 1 29.6175 18.8475 10.77
805 1 26.925 16.155 16.155
806 1 26.925 18.8475 18.8475
807 1 29.6175 16.155 18.8475
808 1 29.6175 18.8475 16.155
809 1 26.925 16.155 21.54
810 1 26.925 18.8475 24.2325
811 1 29.6175 16.155 24.2325
812 1 29.6175 18.8475 21.54
813 1 26.925 16.155 26.925
814 1 26.925 18.8475 29.6175
815 1 29.6175 16.155 29.6175
816 1 29.6175 18.8475 26.925
817 1 26.925 21.54 0
818 1 26.925 24.2325 2.6925
819 1 29.6175 21.54 2.6925
820 1 29.6175 24.2325 0
821 1 26.925 21.54 5.385
822 1 26.925 24.2325 8.0775
823 1 29.6175 21.54 8.0775
824 1 29.6175 24.2325 5.385
825 1 26.925 21.54 10.77
826 1 26.925 24.2325 13.4625
827 1 29.6175 21.54 13.4625
828 1 29.6175 24.2325 10.77
829 1 26.925 21.54 16.155
830 1 26.925 24.2325 18.8475
831 1 29.6175 21.54 18.8475
832 1 29.6175 24.2325 16.155
833 1 26.925 21.54 21.54
834 1 26.925 24.2325 24.2325
835 1 29.6175 21.54 24.2325
836 1 29.6175 24.2325 21.54
837 1 26.925 21.54 26.925
838 1 26.925 24.2325 29.6175
839 1 29.6175 21.54 29.6175
840 1 29.6175 24.2325 26.925
841 1 26.925 26.925 0
842 1 26.925 29.6175 2.6925
843 1 29.6175 26.925 2.6925
844 1 29.6175 29.6175 0
845 1 26.925 26.925 5.385
846 1 26.925 29.6175 8.0775
847 1 29.6175 26.925 8.0775
848 1 29.6175 29.6175 5.385
849 1 26.925 26.925 10.77
850 1 26.925 29.6175 13.4625
851 1 29.6175 26.925 13.4625
852 1 29.6175 29.6175 10.77
853 1 26.925 26.925 16.155
854 1 26.925 29.6175 18.8475
855 1 29.6175 26.925 18.8475
856 1 29.6175 29.6175 16.155
857 1 26.925 26.925 21.54
858 1 26.925 29.6175 24.2325
859 1 29.6175 26.925 24.2325
860 1 29.6175 29.6175 21.54
861 1 26.925 26.925 26.925
862 1 26.925 29.6175 29.6175
863 1 29.6175 26.925 29.6175
864 1 29.6175 29.6175 26.925

Velocities

1 0.0120262 0.000462934 -0.00479139
2 0.0104435 0.00991585 -0.0028961
3 0.00116876 -0.0119039 -0.0181414
4 0.0112282 0.0195899 -0.0115525
5 -0.0100393 0.0147054 0.0150212
6 -0.0129212 -0.00162775 0.0118807
7 -0.0108813 0.0137452 0.00302933
8 0.0151869 0.0169087 0.0177583
9 0.00747209 -0.0175165 -0.0109251
10 0.0141423 0.0162 -0.000894447
11 0.00492681 0.00817659 0.019546
12 -0.0197482 -0.00142952 0.00962047
13 -0.00270904 0.0195085 0.0176941
14 -0.000915232 0.0106871 0.0174427
15 0.0074675 -0.0194017 0.0123068
16 0.00260515 -0.0125537 -0.00916232
17 -0.00539773 -0.00366578 -0.0152585
18 0.0175668 -0.00852843 -0.0181911
19 0.0154415 0.0187129 -0.0157302
20 -0.0153672 0.0128056 -0.0193716
21 0.00367356 -0.00231711 0.00878251
22 0.00333593 -0.00229604 -0.0124884
23 -0.00692718 0.0147642 -0.0128212
24 -0.00911671 -0.00620064 0.0178434
25 -0.0115576 -0.0187827 0.0184191
26 -0.0191344 0.00359167 -0.013976
27 -0.00836153 0.0179632 0.00233573
28 -0.00368478 0.0154804 0.0137848
29 -0.00194067 0.0108723 0.0126563
30 0.00226437 0.0152744 0.00562064
31 0.00282803 -0.00110164 -0.0165378
32 -0.00827305 -0.0178153 0.00114362
33 -0.000826183 -0.00497322 -0.00393356
34 0.00628782 0.00567931 0.00984326
35 0.00424762 0.0138909 0.011038
36 0.00278316 0.0145257 -0.00521165
37 0.00874243 -0.0138854 -0.00708981
38 -0.00880543 0.00219907 -0.0114507
39 -0.0149042 -0.0197912 0.0193991
40 0.0176873 0.00224243 0.0148321
41 0.00342437 -0.0149791 -0.00611084
42 0.00682178 -0.00348291 -0.00394865
43 -0.0119182 0.0154601 0.0110556
44 0.00408348 0.00169838 -0.00310643
45 -0.00595684 -0.0141036 -0.00905685
46 -0.0148024 0.00844883 -0.0143725
47 -7.88345e-05 -0.00285831 -0.00828039
48 0.0127666 0.0081055 0.0138961
49 -0.0185677 0.0129705 0.0140825
50 -0.0190522 0.0106082 -0.00351645
51 0.0157152 -0.00601695 0.00148191
52 -0.0102793 -0.0192447 0.0179765
53 0.0057073 -0.0113937 0.0135953
54 -0.00312068 0.012459 -0.00454769
55 0.0137081 -0.0135474 0.00132622
56 -0.0152323 -0.00858056 -0.0100663
57 -0.00966959 0.0111098 0.00705287
58 0.00198524 0.00382686 -0.00468296
59 -0.00400219 0.00502837 -0.0115538
60 -0.00980333 0.0057454 0.0190319
61 0.00661544 0.00141098 -0.00682639
62 -0.0117862 0.0109009 -0.00609366
63 -0.0136933 -0.00344132 0.00249012
64 0.0198371 0.0132072 -0.00489219
65 -0.00459413 0.00686577 0.0015379
66 0.0166673 0.0114027 0.0129348
67 -0.0132826 -0.0183165 0.00420332
68 0.0137055 0.003438 -0.0118112
69 -0.010861 0.019205 0.0131947
70 -0.0024796 -0.0106479 -0.000901262
71 -0.00333128 0.0157368 -0.0193316
72 0.00977756 -0.016099 0.0115468
73 -0.0161997 -0.0100231 -0.0117359
74 0.00622566 -0.0102355 -0.01837
75 -0.0185501 0.00493958 0.00847326
76 0.002923 0.00155732 3.45912e-05
77 -0.00402577 0.008044 0.00169558
78 -0.019706 0.00169996 -0.0147078
79 -0.011582 0.0106082 -0.0153441
80 -0.0182709 -0.011921 -0.00601444
81 0.000763077 0.00451697 -0.010119
82 0.00136668 -0.00575505 -0.00624047
83 -0.00697012 -0.0021855 0.00371391
84 0.00122923 -0.0160094 0.0134559
85 0.00279448 -0.0147903 -0.0014459
86 -0.00861585 0.00790194 -0.0197299
87 0.011354 -0.0161734 0.00829155
88 -0.00683405 -0.0161102 -0.00984983
89 -0.00160659 -0.00792293 -0.019083
90 0.00298457 -0.00642458 -0.0110265
91 0.0169054 0.0141077 0.0134679
92 -0.0130972 -0.00457516 -0.0121285
93 0.000597561 0.00822396 0.00566352
94 -0.0155721 -0.0105964 0.00963157
95 0.017819 0.0119673 0.0148187
96 -0.00351052 -0.0166981 0.00287935
97 -0.00330521 0.0144251 0.00668342
98 -0.0148972 -0.0124585 0.0105507
99 -0.00481184 0.00570414 -0.0172136
100 -0.0039596 -0.0113609 -0.00366068
101 0.00494911 -0.0145051 -0.00939428
102 -0.00146654 -0.00783303 0.00600803
103 0.00634023 0.0125338 -0.00560934
104 -0.00787984 0.0167309 0.00377176
105 -0.0181319 0.0145003 -0.00410224
106 0.0166221 -0.00905981 -0.000822858
107 -0.000382125 0.00740422 -0.00623908
108 -0.0135823 0.0122762 0.00127988
109 0.0169036 -0.0125852 -0.0128573
110 0.0196253 0.00322445 -0.00424071
111 -0.00391898 -0.011876 0.00123168
112 0.00662197 0.00642669 0.0133761
113 -0.00725358 -0.00728266 0.00606854
114 0.0070723 0.00460674 0.00295809
115 -0.00903953 0.00624412 -0.00238297
116 0.00679345 0.00281666 0.0085347
117 -0.013913 -0.017615 -0.00390242
118 -0.000216857 -0.0114281 -0.0114675
119 -0.0188206 -0.014574 -0.00407525
120 -0.0117427 -0.0149983 0.0191267
121 0.00395185 0.000851951 -0.0125907
122 -0.0147001 -0.0125757 0.0138135
123 0.0186113 -6.00021e-05 -0.0133105
124 0.00479624 -0.0130373 0.0112737
125 -0.0121293 -0.00230757 -0.00232353
126 0.005423 -0.0155637 -0.0193482
127 -0.00592589 -0.00970745 -0.0169858
128 0.0101069 0.00984493 -0.00843639
129 0.0185746 0.0107936 -0.00303295
130 -0.00538423 0.0188202 0.00194621
131 -0.00614115 0.00272245 -0.0170432
132 0.00120338 0.00779163 -0.00964136
133 -0.00486673 0.00635334 0.0102761
134 0.00175797 -0.0089 0.0172163
135 -0.00685193 -0.00126001 -0.00493261
136 0.0107598 -0.0158866 -0.000518834
137 0.0113468 -0.00204324 0.00975118
138 0.0142962 -0.0119859 -0.000245226
139 -0.0140238 -0.0134609 -0.00929297
140 0.00287852 0.000924145 -0.0103141
141 -0.0150589 0.0145522 0.0123858
142 -0.0121668 -0.00429396 0.000336068
143 -0.00187294 0.0106085 -0.0131519
144 -0.0114804 -0.00768305 -0.00207446
145 -0.0141477 0.00523425 0.016643
146 0.000854902 -0.00405556 -0.0190849
147 -0.0195475 -0.0127584 -0.0011507
148 0.0101389 -0.0185117 0.00684087
149 -0.00998992 -0.0127662 0.0133575
150 0.000652333 0.00988154 -0.00555971
151 0.0102734 0.0145919 -0.0108488
152 0.00277562 -0.0176245 0.00483469
153 -0.0167719 0.000271832 -0.0043981
154 -0.00998861 0.00856065 0.00789631
155 0.00787215 0.0141822 -0.00671078
156 0.00463155 -0.0050125 0.00921113
157 0.00548184 -0.00479078 0.0164302
158 -0.0155524 -0.0147015 0.017896
159 0.0112237 -0.00492215 -0.0147115
160 0.00469755 0.0154994 0.0151475
161 0.0190731 0.00572327 0.00989804
162 -0.0116593 -0.0115507 0.012251
163 0.0131106 -0.00855335 -0.00731846
164 -0.0111711 0.00122728 -0.0185992
165 0.0166604 -0.0109501 0.0155605
166 -0.00993396 0.0134506 -0.00929335
167 0.0192124 -0.00111709 0.00589334
168 0.0157591 0.00309971 0.0111693
169 0.0137715 -0.00572621 -0.0135941
170 0.0189952 0.0187406 -0.0179361
171 0.014259 0.0177641 0.00776468
172 0.0042735 -0.0139449 0.0161915
173 -0.00335904 0.0189349 -0.0122032
174 0.00925772 -0.0122858 0.00900153
175 0.0105938 -0.0156749 0.0180288
176 0.0062707 -0.00583963 0.0116382
177 0.0169126 -0.0066768 -0.00932027
178 0.00292233 -0.0109673 0.0137569
179 -0.00579191 -0.0172454 -0.0118106
180 0.000549169 -0.0182998 -0.0129114
181 0.00254833 0.0157285 -0.0149887
182 -0.00957057 -4.7582e-05 -0.00895607
183 -0.0132627 0.0163626 -0.00986246
184 -0.00553069 0.00557077 -0.00217075
185 -0.0164127 -0.00388501 0.00213181
186 -0.0182675 -0.0176639 0.0162696
187 0.0133059 0.0190179 -0.0102485
188 -0.015898 0.00189068 -0.00123834
189 0.0177942 0.015868 0.00149374
190 -0.0139001 -0.0036324 0.00317141
191 -0.00687627 0.0186852 -0.000941433
192 -0.00192973 -0.010935 0.0189885
193 0.00904942 -0.00442843 0.0155097
194 0.0191222 0.00981012 0.00123916
195 -0.00293215 0.0131666 0.0173316
196 0.0191349 0.0146684 0.0196452
197 0.0155209 0.00792467 0.0188218
198 -0.0146112 0.0117959 0.000871128
199 0.00408573 0.00954052 -0.00310221
200 -0.0143041 0.0154097 0.0132429
201 0.00880251 -0.0115162 0.0120867
202 -0.0120225 0.00632333 -0.0186896
203 -0.0129176 -0.00467682 -0.00314059
204 -0.0172915 -0.00560421 -0.0131718
205 0.00388289 0.0112329 -0.0198465
206 0.00133092 0.0103182 0.0147993