LAMMPS data file via write_data, version 29 Sep 2021, timestep = 0

27 atoms
1 atom types

0 10 xlo xhi
0 10 ylo yhi
0 10 zlo zhi

Masses

1 26.982

Atoms # atomic

1 1 0 0 0 0 0 0
2 1 3.52 0 0 0 0 0
3 1 7.04 0 0 0 0 0
4 1 0 3.52 0 0 0 0
5 1 3.52 3.52 0 0 0 0
6 1 7.04 3.52 0 0 0 0
7 1 0 7.04 0 0 0 0
8 1 3.52 7.04 0 0 0 0
9 1 7.04 7.04 0 0 0 0
10 1 0 0 3.52 0 0 0
11 1 3.52 0 3.52 0 0 0
12 1 7.04 0 3.52 0 0 0
13 1 0 3.52 3.52 0 0 0
14 1 3.52 3.52 3.52 0 0 0
15 1 7.04 3.52 3.52 0 0 0
16 1 0 7.04 3.52 0 0 0
17 1 3.52 7.04 3.52 0 0 0
18 1 7.04 7.04 3.52 0 0 0
19 1 0 0 7.04 0 0 0
20 1 3.52 0 7.04 0 0 0
21 1 7.04 0 7.04 0 0 0
22 1 0 3.52 7.04 0 0 0
23 1 3.52 3.52 7.04 0 0 0
24 1 7.04 3.52 7.04 0 0 0
25 1 0 7.04 7.04 0 0 0
26 1 3.52 7.04 7.04 0 0 0
27 1 7.04 7.04 7.04 0 0 0

Velocities

1 0 0 0
2 0 0 0
3 0 0 0
4 0 0 0
5 0 0 0
6 0 0 0
7 0 0 0
8 0 0 0
9 0 0 0
10 0 0 0
11 0 0 0
12 0 0 0
13 0 0 0
14 0 0 0
15 0 0 0
16 0 0 0
17 0 0 0
18 0 0 0
19 0 0 0
20 0 0 0
21 0 0 0
22 0 0 0
23 0 0 0
24 0 0 0
25 0 0 0
26 0 0 0
27 0 0 0
